# vtk DataFile Version 5.1
vtk output
ASCII
DATASET POLYDATA
POINTS 151921 float
-94.1296 31.0993 0 -94.1252 31.1001 0 -94.1154 31.1021 0 
-94.0914 31.1068 0 -94.0745 31.1102 0 -94.0641 31.1123 0 
-94.0638 31.1131 0 -94.0636 31.1135 0 -94.0634 31.1142 0 
-94.0632 31.1146 0 -94.0629 31.1149 0 -94.0626 31.115 0 
-94.0623 31.1149 0 -94.0622 31.1146 0 -94.0623 31.1142 0 
-94.0625 31.1132 0 -94.0624 31.1127 0 -94.0623 31.1124 0 
-94.062 31.1125 0 -94.0618 31.1131 0 -94.0614 31.1136 0 
-94.0611 31.1139 0 -94.0608 31.1138 0 -94.061 31.1132 0 
-94.0609 31.1128 0 -94.0608 31.1126 0 -94.0597 31.1129 0 
-94.0591 31.1132 0 -94.0589 31.1132 0 -94.0588 31.1127 0 
-94.0584 31.1125 0 -94.0583 31.1118 0 -94.058 31.1116 0 
-94.0575 31.1117 0 -94.0572 31.1126 0 -94.0569 31.1125 0 
-94.0569 31.1117 0 -94.0566 31.1117 0 -94.0559 31.1121 0 
-94.0556 31.1125 0 -94.0557 31.1127 0 -94.0571 31.1131 0 
-94.0578 31.1133 0 -94.0578 31.1137 0 -94.0571 31.1143 0 
-94.0568 31.1142 0 -94.0567 31.1138 0 -94.0564 31.1138 0 
-94.0556 31.1135 0 -94.0552 31.1135 0 -94.0551 31.1136 0 
-94.055 31.1145 0 -94.0546 31.1145 0 -94.0541 31.1143 0 
-94.0537 31.1143 0 -94.0529 31.1146 0 -94.0524 31.1146 0 
-94.052 31.1148 0 -94.0518 31.1151 0 -94.0514 31.1151 0 
-94.0513 31.1145 0 -94.0509 31.1146 0 -94.0509 31.115 0 
-94.0508 31.1155 0 -94.0506 31.1159 0 -94.05 31.1163 0 
-94.0497 31.1163 0 -94.0498 31.1157 0 -94.0496 31.1155 0 
-94.0493 31.1154 0 -94.0488 31.1155 0 -94.0483 31.1156 0 
-94.0481 31.1159 0 -94.0482 31.1162 0 -94.0488 31.1165 0 
-94.0487 31.1169 0 -94.0481 31.1171 0 -94.0477 31.1173 0 
-94.0476 31.1176 0 -94.0473 31.1177 0 -94.0467 31.1176 0 
-94.0465 31.1174 0 -94.0463 31.117 0 -94.0461 31.1167 0 
-94.0457 31.1166 0 -94.0454 31.1167 0 -94.0451 31.117 0 
-94.045 31.1173 0 -94.0454 31.118 0 -94.0455 31.1183 0 
-94.0453 31.1185 0 -94.0445 31.1183 0 -94.0432 31.1186 0 
-94.0429 31.1188 0 -94.0423 31.1194 0 -94.0422 31.1198 0 
-94.0424 31.1202 0 -94.0425 31.1205 0 -94.0423 31.1213 0 
-94.0418 31.1225 0 -94.0415 31.1229 0 -94.0408 31.123 0 
-94.0404 31.1231 0 -94.0402 31.1235 0 -94.0403 31.124 0 
-94.0401 31.1244 0 -94.0401 31.1247 0 -94.0404 31.1248 0 
-94.0409 31.1249 0 -94.0412 31.1252 0 -94.0413 31.1255 0 
-94.0411 31.1257 0 -94.0387 31.127 0 -94.0386 31.1272 0 
-94.0387 31.1275 0 -94.0387 31.1284 0 -94.038 31.1291 0 
-94.0378 31.1294 0 -94.0379 31.1296 0 -94.0382 31.1297 0 
-94.0382 31.1303 0 -94.0384 31.1305 0 -94.0387 31.1304 0 
-94.0396 31.1299 0 -94.04 31.1301 0 -94.0398 31.1304 0 
-94.0395 31.1314 0 -94.0394 31.1315 0 -94.0389 31.1318 0 
-94.0388 31.1325 0 -94.0394 31.1326 0 -94.0397 31.1328 0 
-94.0397 31.1331 0 -94.0393 31.133 0 -94.0387 31.1331 0 
-94.0386 31.1334 0 -94.039 31.1335 0 -94.0395 31.1334 0 
-94.0398 31.1335 0 -94.0396 31.1338 0 -94.039 31.1343 0 
-94.0339 31.1352 0 -94.0334 31.1353 0 -94.026 31.1366 0 
-94.0117 31.1393 0 -94.0043 31.1407 0 -94.0002 31.1415 0 
-93.9985 31.1417 0 -93.9953 31.1423 0 -93.9849 31.1443 0 
-93.9841 31.1445 0 -93.9679 31.1475 0 -93.9666 31.1477 0 
-93.9639 31.1482 0 -93.946 31.1516 0 -93.9436 31.1521 0 
-93.9381 31.1531 0 -93.9269 31.1552 0 -93.9174 31.1569 0 
-93.9112 31.1581 0 -93.8869 31.1595 0 -93.8752 31.1601 0 
-93.8735 31.1603 0 -93.8661 31.1608 0 -93.8567 31.1612 0 
-93.851 31.1615 0 -93.8477 31.1617 0 -93.8465 31.1619 0 
-93.8448 31.1619 0 -93.84 31.1622 0 -93.8343 31.1625 0 
-93.8262 31.1631 0 -93.8206 31.1634 0 -93.799 31.1646 0 
-93.7951 31.1648 0 -93.7929 31.165 0 -93.7814 31.1657 0 
-93.7706 31.1663 0 -93.7502 31.1676 0 -93.7427 31.1679 0 
-93.7335 31.1683 0 -93.716 31.1694 0 -93.6942 31.1707 0 
-93.6721 31.172 0 -93.6692 31.1722 0 -93.6668 31.1723 0 
-93.6651 31.1724 0 -93.664 31.1725 0 -93.6622 31.1726 0 
-93.6455 31.1736 0 -93.6252 31.1748 0 -93.6133 31.1754 0 
-93.6003 31.1762 0 -93.6007 31.1769 0 -93.6007 31.1774 0 
-93.601 31.1782 0 -93.6015 31.1801 0 -93.602 31.1808 0 
-93.6023 31.1817 0 -93.6024 31.1825 0 -93.6022 31.1843 0 
-93.6019 31.1854 0 -93.6016 31.1875 0 -93.6019 31.1929 0 
-93.6018 31.1956 0 -93.6018 31.1987 0 -93.6019 31.1994 0 
-93.602 31.1999 0 -93.6036 31.2012 0 -93.6065 31.2038 0 
-93.607 31.2043 0 -93.6072 31.2048 0 -93.6073 31.2054 0 
-93.6071 31.2058 0 -93.6065 31.2064 0 -93.6059 31.2071 0 
-93.605 31.2081 0 -93.6046 31.2086 0 -93.6038 31.2099 0 
-93.6035 31.2107 0 -93.6034 31.2113 0 -93.6037 31.2134 0 
-93.6038 31.2142 0 -93.6038 31.2158 0 -93.6037 31.2164 0 
-93.6035 31.2167 0 -93.6031 31.2171 0 -93.5957 31.2198 0 
-93.5954 31.22 0 -93.5953 31.2203 0 -93.595 31.2213 0 
-93.5953 31.2218 0 -93.5956 31.2221 0 -93.5962 31.2225 0 
-93.5976 31.2232 0 -93.5987 31.2239 0 -93.5991 31.2242 0 
-93.5993 31.2245 0 -93.5993 31.2249 0 -93.5992 31.2253 0 
-93.5987 31.2258 0 -93.5982 31.2266 0 -93.5968 31.228 0 
-93.5963 31.2289 0 -93.5963 31.2295 0 -93.5965 31.2301 0 
-93.5969 31.2306 0 -93.5974 31.231 0 -93.5978 31.2311 0 
-93.5984 31.2311 0 -93.6017 31.2295 0 -93.607 31.2279 0 
-93.6075 31.2278 0 -93.6082 31.2278 0 -93.6087 31.228 0 
-93.6094 31.2286 0 -93.6098 31.2291 0 -93.6101 31.2308 0 
-93.6104 31.2317 0 -93.6107 31.2322 0 -93.6118 31.2326 0 
-93.6125 31.2327 0 -93.6132 31.2324 0 -93.6165 31.232 0 
-93.6175 31.2321 0 -93.6179 31.2323 0 -93.6181 31.2327 0 
-93.6183 31.2331 0 -93.6177 31.2343 0 -93.6171 31.2352 0 
-93.6165 31.2361 0 -93.6163 31.2368 0 -93.6162 31.2375 0 
-93.6166 31.2388 0 -93.6168 31.2394 0 -93.6171 31.2402 0 
-93.6171 31.2418 0 -93.6164 31.2435 0 -93.6163 31.2441 0 
-93.6163 31.2446 0 -93.6165 31.2449 0 -93.6177 31.2457 0 
-93.6184 31.246 0 -93.6201 31.247 0 -93.6213 31.2481 0 
-93.6217 31.2486 0 -93.6218 31.2491 0 -93.6216 31.2494 0 
-93.6212 31.2496 0 -93.6196 31.2502 0 -93.6178 31.2506 0 
-93.6151 31.2513 0 -93.6143 31.2516 0 -93.614 31.2523 0 
-93.6139 31.2529 0 -93.6147 31.2535 0 -93.6154 31.2542 0 
-93.6156 31.2551 0 -93.6154 31.2561 0 -93.6142 31.2587 0 
-93.6139 31.2594 0 -93.6141 31.2601 0 -93.6144 31.2609 0 
-93.6153 31.2619 0 -93.6164 31.2626 0 -93.618 31.2634 0 
-93.6191 31.2642 0 -93.6199 31.2652 0 -93.6202 31.2663 0 
-93.62 31.2704 0 -93.6203 31.271 0 -93.6208 31.2713 0 
-93.6218 31.2714 0 -93.6228 31.2713 0 -93.6239 31.2712 0 
-93.6252 31.2709 0 -93.627 31.2707 0 -93.6287 31.2705 0 
-93.6307 31.2703 0 -93.6329 31.27 0 -93.6352 31.27 0 
-93.6382 31.2694 0 -93.6397 31.2692 0 -93.6414 31.2692 0 
-93.6425 31.2695 0 -93.6435 31.2704 0 -93.6439 31.2712 0 
-93.6441 31.2725 0 -93.6441 31.2744 0 -93.6442 31.2766 0 
-93.6446 31.2778 0 -93.6452 31.2788 0 -93.6461 31.28 0 
-93.6471 31.2812 0 -93.6478 31.2829 0 -93.6487 31.2842 0 
-93.6494 31.2846 0 -93.65 31.2847 0 -93.6512 31.2845 0 
-93.6521 31.2842 0 -93.6551 31.2829 0 -93.6555 31.2825 0 
-93.657 31.2817 0 -93.658 31.2815 0 -93.6587 31.2816 0 
-93.6593 31.2821 0 -93.6597 31.2827 0 -93.6603 31.2839 0 
-93.6619 31.2866 0 -93.663 31.2882 0 -93.6641 31.2897 0 
-93.6648 31.2912 0 -93.6656 31.2927 0 -93.6663 31.2936 0 
-93.6676 31.295 0 -93.6683 31.2961 0 -93.6686 31.2972 0 
-93.6689 31.298 0 -93.6698 31.2987 0 -93.6717 31.2996 0 
-93.6735 31.3004 0 -93.6754 31.301 0 -93.677 31.3012 0 
-93.6788 31.3015 0 -93.6804 31.3016 0 -93.6828 31.3014 0 
-93.6836 31.3015 0 -93.684 31.3018 0 -93.6845 31.3022 0 
-93.6862 31.304 0 -93.6869 31.3052 0 -93.6873 31.3061 0 
-93.6877 31.3073 0 -93.6879 31.3085 0 -93.6879 31.3098 0 
-93.6875 31.3108 0 -93.6872 31.3114 0 -93.6866 31.3121 0 
-93.6843 31.3143 0 -93.684 31.3146 0 -93.6837 31.3155 0 
-93.6836 31.317 0 -93.6835 31.3181 0 -93.6829 31.319 0 
-93.6822 31.3196 0 -93.6807 31.3203 0 -93.6783 31.3208 0 
-93.6772 31.321 0 -93.6763 31.3214 0 -93.6759 31.3216 0 
-93.6753 31.322 0 -93.6743 31.3233 0 -93.6738 31.3239 0 
-93.6736 31.3245 0 -93.6735 31.3251 0 -93.6737 31.3256 0 
-93.674 31.3262 0 -93.6745 31.3269 0 -93.6765 31.329 0 
-93.677 31.3296 0 -93.6772 31.3301 0 -93.6773 31.3305 0 
-93.6771 31.3309 0 -93.6765 31.3315 0 -93.6757 31.332 0 
-93.6746 31.3326 0 -93.6728 31.3343 0 -93.6724 31.3348 0 
-93.6718 31.3357 0 -93.6695 31.3381 0 -93.669 31.3388 0 
-93.6688 31.3395 0 -93.6688 31.3408 0 -93.6687 31.3425 0 
-93.6687 31.3439 0 -93.6689 31.3467 0 -93.6695 31.3506 0 
-93.6694 31.3513 0 -93.6689 31.3523 0 -93.6684 31.353 0 
-93.6674 31.3535 0 -93.6649 31.354 0 -93.6641 31.3543 0 
-93.6578 31.3556 0 -93.6561 31.3562 0 -93.6529 31.3571 0 
-93.651 31.3574 0 -93.6476 31.3581 0 -93.6469 31.3585 0 
-93.6459 31.359 0 -93.6453 31.3595 0 -93.6449 31.3602 0 
-93.6449 31.3609 0 -93.6449 31.3618 0 -93.645 31.363 0 
-93.6448 31.3641 0 -93.6441 31.3655 0 -93.6434 31.3661 0 
-93.6424 31.3667 0 -93.6417 31.3674 0 -93.6412 31.3682 0 
-93.6401 31.3702 0 -93.6396 31.371 0 -93.6393 31.3715 0 
-93.6392 31.372 0 -93.6393 31.3724 0 -93.6395 31.3726 0 
-93.6408 31.3725 0 -93.6414 31.3725 0 -93.6422 31.3718 0 
-93.6433 31.371 0 -93.6441 31.3706 0 -93.6448 31.3706 0 
-93.6472 31.3711 0 -93.6483 31.3709 0 -93.6499 31.3701 0 
-93.652 31.369 0 -93.6546 31.3682 0 -93.6566 31.3674 0 
-93.6583 31.3668 0 -93.6598 31.3666 0 -93.6616 31.3665 0 
-93.6636 31.3662 0 -93.6654 31.3657 0 -93.6673 31.3654 0 
-93.6691 31.3654 0 -93.6701 31.3657 0 -93.671 31.3662 0 
-93.6733 31.3687 0 -93.6738 31.3699 0 -93.6738 31.3706 0 
-93.6736 31.371 0 -93.6732 31.3711 0 -93.6724 31.3712 0 
-93.6712 31.3708 0 -93.67 31.3705 0 -93.6694 31.3705 0 
-93.6691 31.3708 0 -93.669 31.3719 0 -93.669 31.3727 0 
-93.6693 31.3752 0 -93.6694 31.3772 0 -93.6702 31.3872 0 
-93.6713 31.3916 0 -93.6716 31.3934 0 -93.6722 31.3946 0 
-93.6736 31.3967 0 -93.6741 31.3977 0 -93.6747 31.3981 0 
-93.6766 31.3987 0 -93.6787 31.3986 0 -93.6803 31.3981 0 
-93.6814 31.398 0 -93.6821 31.3983 0 -93.6826 31.3987 0 
-93.6828 31.3991 0 -93.6853 31.4015 0 -93.6881 31.4048 0 
-93.6903 31.4066 0 -93.6931 31.4078 0 -93.6959 31.4094 0 
-93.6979 31.4097 0 -93.7 31.4096 0 -93.7016 31.4093 0 
-93.7027 31.4098 0 -93.704 31.4107 0 -93.7049 31.4109 0 
-93.705 31.4117 0 -93.7049 31.4129 0 -93.7045 31.415 0 
-93.7048 31.4167 0 -93.7047 31.4189 0 -93.7029 31.4204 0 
-93.7025 31.4214 0 -93.701 31.4246 0 -93.6936 31.4358 0 
[...]
CELL_DATA 38
FIELD FieldData 1
s 1 38 int
1 2 3 4 5 6 7 8 9 
10 11 12 13 14 15 16 17 18 
19 20 21 22 23 24 25 26 27 
28 29 30 31 32 33 34 35 36 
37 38 
